ITEM: TIMESTEP
0
ITEM: NUMBER OF ATOMS
1329
ITEM: BOX BOUNDS pp pp pp
-4.0000000000000000e+01 4.0000000000000000e+01
-1.5000000000000000e+01 1.5000000000000000e+01
-1.5000000000000000e+01 1.5000000000000000e+01
ITEM: ATOMS id type xs ys zs
384 2 0.0348616 0.0103222 0.0679571
111 2 0.0337608 0.192838 0.16132
110 2 0.0461908 0.15518 0.155867
109 1 0.0382444 0.172686 0.139664
745 1 0.249379 0.227412 0.00838466
390 2 0.179498 0.012971 0.191301
114 2 0.178509 0.235649 0.165966
113 2 0.193238 0.203967 0.166153
112 1 0.181276 0.20461 0.166413
26 2 0.181226 0.0265445 0.0872485
135 2 0.238814 0.0417537 0.242096
133 1 0.231229 0.034463 0.21852
134 2 0.234493 0.0534116 0.194369
55 1 0.0517449 0.499798 0.107324
56 2 0.0543624 0.468687 0.108492
397 1 0.240014 0.494222 0.210291
34 1 0.219773 0.29978 0.184147
35 2 0.229319 0.280838 0.180809
36 2 0.222647 0.326358 0.168245
132 2 0.162896 0.413581 0.219953
52 1 0.18781 0.415932 0.10142
53 2 0.180641 0.390387 0.101446
54 2 0.181571 0.438359 0.0859827
61 1 0.238221 0.456374 0.0927166
62 2 0.246245 0.461261 0.115875
63 2 0.242455 0.431284 0.0765582
142 1 0.06698 0.0340923 0.496692
126 2 0.113258 0.139709 0.496327
125 2 0.120046 0.0926103 0.497102
105 2 0.105782 0.142918 0.265961
104 2 0.0959405 0.184114 0.278636
103 1 0.102466 0.171557 0.255024
221 2 0.16749 0.238828 0.490777
129 2 0.150175 0.00694434 0.382367
128 2 0.150141 0.0568354 0.374789
127 1 0.14986 0.0348187 0.397871
102 2 0.195448 0.0502548 0.457053
101 2 0.208626 0.0516898 0.49324
100 1 0.206037 0.0379033 0.465306
84 2 0.237918 0.0814218 0.467797
82 1 0.240546 0.0507525 0.473118
49 1 0.154754 0.181333 0.369768
50 2 0.162631 0.204938 0.374196
51 2 0.145849 0.187844 0.390061
66 2 0.224868 0.10385 0.391284
65 2 0.22839 0.0791338 0.348301
64 1 0.220227 0.0821513 0.371433
89 2 0.0133994 0.401944 0.384707
88 1 0.00250392 0.39716 0.396994
69 2 0.011186 0.374631 0.286956
68 2 0.00743371 0.423785 0.292463
67 1 0.00751209 0.396139 0.308391
130 1 0.166384 0.417532 0.250218
108 2 0.144229 0.354083 0.301741
107 2 0.151177 0.309572 0.286839
106 1 0.140899 0.324736 0.292912
131 2 0.163448 0.447683 0.257121
93 2 0.24103 0.363096 0.442607
92 2 0.243657 0.320688 0.416168
91 1 0.235253 0.337475 0.431464
87 2 0.160352 0.457435 0.415422
86 2 0.15403 0.417063 0.390276
85 1 0.154252 0.44895 0.389319
1785 2 0.00515913 0.143017 0.547553
143 2 0.0569053 0.0288194 0.513077
144 2 0.0751452 0.0408862 0.519003
124 1 0.110146 0.109592 0.502821
157 1 0.0227556 0.0575797 0.744006
158 2 0.0329199 0.0707389 0.733509
243 2 0.0734846 0.244682 0.66577
242 2 0.0903739 0.225409 0.67788
241 1 0.0787598 0.217957 0.676062
519 2 0.197157 0.00175581 0.639269
273 2 0.204009 0.198953 0.584006
272 2 0.219096 0.168498 0.583353
271 1 0.2072 0.168324 0.586756
264 2 0.178443 0.249876 0.702367
263 2 0.193452 0.219153 0.703198
169 1 0.242373 0.196839 0.621473
262 1 0.181487 0.219025 0.702946
171 2 0.240881 0.228411 0.619152
211 1 0.142708 0.207086 0.645877
212 2 0.133513 0.2211 0.660722
213 2 0.147568 0.188103 0.668007
220 1 0.175666 0.234487 0.513663
222 2 0.16953 0.237195 0.540919
217 1 0.104911 0.436116 0.673306
218 2 0.108713 0.422092 0.6465
219 2 0.111853 0.423878 0.696231
139 1 0.21953 0.305049 0.52903
140 2 0.221285 0.328647 0.508071
141 2 0.225393 0.314397 0.555225
172 1 0.228644 0.489944 0.672664
173 2 0.239662 0.479855 0.665374
249 2 0.195085 0.444707 0.647118
248 2 0.200736 0.491033 0.633952
247 1 0.201692 0.469326 0.657197
240 2 0.245702 0.369279 0.665054
239 2 0.239627 0.402762 0.699157
238 1 0.240689 0.398127 0.667716
214 1 0.129971 0.471488 0.526919
215 2 0.140633 0.471979 0.51245
216 2 0.132168 0.4589 0.555646
159 2 0.0166282 0.0819063 0.756626
196 1 0.113327 0.0529974 0.775412
197 2 0.122016 0.0726835 0.765741
198 2 0.105776 0.0716979 0.791627
205 1 0.0069353 0.221415 0.776227
206 2 0.0158887 0.215538 0.79656
223 1 0.0746637 0.126159 0.899771
224 2 0.0827003 0.102665 0.902368
225 2 0.0786318 0.14886 0.919539
813 2 0.244156 0.116881 0.813382
746 2 0.249532 0.199629 0.992702
267 2 0.168714 0.0361637 0.812691
266 2 0.157176 0.016688 0.847628
265 1 0.160699 0.0443985 0.834904
190 1 0.205145 0.0784549 0.938305
191 2 0.21647 0.0841422 0.946879
192 2 0.201356 0.106031 0.925834
228 2 0.192181 0.214336 0.888208
227 2 0.208401 0.188365 0.887102
226 1 0.196526 0.184713 0.885714
270 2 0.0791055 0.309748 0.997789
269 2 0.0654822 0.328177 0.968004
268 1 0.0773414 0.324348 0.969812
160 1 0.0268949 0.433017 0.817166
161 2 0.0386067 0.42948 0.811677
162 2 0.025254 0.464597 0.818423
261 2 0.0866777 0.431736 0.78631
260 2 0.0885617 0.479457 0.801929
259 1 0.0831271 0.451953 0.809106
178 1 0.0364417 0.322863 0.850332
179 2 0.0303224 0.349662 0.844539
180 2 0.0286111 0.303828 0.865154
207 2 0.00863265 0.251651 0.767098
163 1 0.151074 0.27417 0.895103
164 2 0.161331 0.283108 0.881318
165 2 0.146919 0.30074 0.908862
258 2 0.234707 0.300915 0.7504
257 2 0.245656 0.260924 0.760134
256 1 0.234568 0.269023 0.751295
255 2 0.127832 0.299567 0.853884
254 2 0.128412 0.344524 0.831014
253 1 0.131686 0.314052 0.827377
246 2 0.151089 0.42322 0.820687
245 2 0.13253 0.415418 0.814661
244 1 0.143062 0.400278 0.814907
231 2 0.219567 0.419466 0.815432
230 2 0.214462 0.39206 0.775305
229 1 0.220414 0.41846 0.783621
1937 2 0.00125843 0.683283 0.212355
497 2 0.0330898 0.630276 0.00634152
57 2 0.0551636 0.508953 0.0781498
455 2 0.0105283 0.715299 0.0471487
454 1 0.00509855 0.735182 0.0268253
426 2 0.11899 0.614809 0.132786
425 2 0.120525 0.569017 0.153591
424 1 0.12419 0.599207 0.156918
301 1 0.218452 0.51671 0.0501104
302 2 0.227749 0.50504 0.0337657
303 2 0.223077 0.540466 0.0674751
428 2 0.180708 0.746548 0.0827788
399 2 0.233162 0.514612 0.193907
398 2 0.248934 0.512177 0.221688
456 2 0.00949468 0.76396 0.0340684
441 2 0.112363 0.871898 0.112576
439 1 0.115789 0.841329 0.11231
466 1 0.0897794 0.790044 0.156956
432 2 0.00960023 0.91688 0.145177
431 2 0.0233234 0.917186 0.179923
430 1 0.0165039 0.897504 0.162603
423 2 0.0271754 0.852744 0.0458634
422 2 0.0236468 0.866664 0.0934472
421 1 0.0187673 0.865955 0.064323
467 2 0.0951626 0.805678 0.133133
468 2 0.0799118 0.807054 0.162978
383 2 0.0239194 0.979989 0.040118
382 1 0.024755 0.993278 0.0690398
27 2 0.194059 0.990674 0.0966735
25 1 0.182877 0.999577 0.103723
463 1 0.165523 0.808986 0.224087
464 2 0.163708 0.839475 0.216022
440 2 0.127744 0.842514 0.111757
465 2 0.172849 0.810378 0.249276
322 1 0.230733 0.774244 0.013153
323 2 0.232757 0.790786 0.0398981
324 2 0.218865 0.770251 0.0124649
429 2 0.186584 0.793914 0.0751956
427 1 0.176906 0.776801 0.082884
389 2 0.195424 0.985836 0.19388
388 1 0.183595 0.983022 0.189992
286 1 0.0951501 0.680023 0.266799
287 2 0.0997517 0.656679 0.284758
288 2 0.102596 0.70464 0.271018
513 2 0.0555874 0.616254 0.493358
295 1 0.0429459 0.588959 0.293233
296 2 0.0383668 0.570942 0.269902
297 2 0.054449 0.580318 0.294791
387 2 0.0882527 0.712463 0.371157
385 1 0.0907842 0.737696 0.352834
378 2 0.0860754 0.677324 0.434115
377 2 0.104327 0.688052 0.442034
376 1 0.094244 0.680101 0.457263
369 2 0.12395 0.613094 0.36996
367 1 0.120028 0.584156 0.378401
450 2 0.179734 0.67133 0.460119
449 2 0.180418 0.625822 0.481852
448 1 0.174384 0.65337 0.482299
415 1 0.239714 0.740969 0.36088
405 2 0.226262 0.645876 0.340442
404 2 0.240731 0.613908 0.346441
403 1 0.23372 0.62699 0.324138
396 2 0.167109 0.5845 0.344862
395 2 0.166937 0.551035 0.307094
394 1 0.169239 0.581664 0.313594
364 1 0.226687 0.736147 0.491267
368 2 0.12883 0.572081 0.396326
1878 2 0.00173184 0.95945 0.276277
346 1 0.119375 0.786286 0.294092
347 2 0.109261 0.769399 0.296421
348 2 0.118503 0.801242 0.266004
386 2 0.0886618 0.762913 0.371545
541 1 0.147101 0.794575 0.494082
307 1 0.144502 0.861617 0.387904
308 2 0.155678 0.866423 0.398235
309 2 0.13997 0.890939 0.384418
316 1 0.170249 0.795983 0.347269
317 2 0.179098 0.813922 0.359076
318 2 0.160584 0.804688 0.363938
435 2 0.177481 0.950654 0.316587
434 2 0.192493 0.959819 0.345909
433 1 0.183536 0.939115 0.341569
417 2 0.238225 0.768905 0.345984
358 1 0.245233 0.861312 0.384316
359 2 0.240969 0.863779 0.414026
360 2 0.249715 0.83177 0.382752
591 2 0.0346858 0.729689 0.648908
583 1 0.105971 0.726487 0.547153
490 1 0.0762901 0.699161 0.635226
491 2 0.0875778 0.694218 0.644584
492 2 0.0750847 0.681405 0.608912
511 1 0.0622507 0.59853 0.513061
512 2 0.0657657 0.61883 0.535823
564 2 0.0346865 0.56885 0.721377
563 2 0.0433337 0.557855 0.677857
562 1 0.0409582 0.545938 0.706769
535 1 0.0753155 0.516816 0.696924
536 2 0.0844886 0.537268 0.698098
537 2 0.065732 0.534486 0.704184
584 2 0.115807 0.71884 0.56363
544 1 0.0453227 0.623563 0.578853
545 2 0.0489386 0.621331 0.609186
546 2 0.0363323 0.644603 0.579607
560 2 0.0658131 0.733034 0.714352
478 1 0.197155 0.692031 0.578949
479 2 0.197897 0.714168 0.556057
480 2 0.197683 0.70856 0.606204
365 2 0.2373 0.739568 0.505602
174 2 0.227743 0.51845 0.658535
582 2 0.150659 0.730718 0.695816
581 2 0.142545 0.708253 0.656147
580 1 0.140316 0.718109 0.685905
514 1 0.133538 0.600835 0.680136
515 2 0.125502 0.613164 0.659965
516 2 0.126978 0.58805 0.703558
590 2 0.026625 0.767206 0.622891
573 2 0.0765685 0.976342 0.693211
572 2 0.0925278 0.975166 0.666119
571 1 0.0806166 0.974179 0.663264
589 1 0.0321775 0.760849 0.65043
585 2 0.103575 0.756534 0.555779
532 1 0.0714351 0.85291 0.719911
533 2 0.0679318 0.847355 0.689912
534 2 0.083371 0.850941 0.718872
558 2 0.00436518 0.983004 0.746491
559 1 0.0658861 0.760988 0.698972
561 2 0.0722799 0.780336 0.71776
366 2 0.220147 0.760586 0.502062
579 2 0.176317 0.799985 0.695827
578 2 0.178465 0.750791 0.70551
577 1 0.172815 0.776952 0.715835
517 1 0.199506 0.970497 0.637973
518 2 0.211295 0.968423 0.643002
567 2 0.205098 0.862514 0.588829
566 2 0.201148 0.868624 0.637801
565 1 0.206511 0.882882 0.613098
542 2 0.139853 0.802891 0.518069
543 2 0.157825 0.790914 0.507753
2055 2 0.00654085 0.708821 0.948922
496 1 0.0286653 0.64836 0.982851
498 2 0.0263602 0.676443 0.996692
475 1 0.130737 0.676353 0.85649
476 2 0.12962 0.660663 0.884112
477 2 0.127278 0.655342 0.834321
576 2 0.23099 0.682921 0.876669
575 2 0.247486 0.667476 0.857358
574 1 0.236167 0.658207 0.861949
587 2 0.236041 0.732384 0.750642
586 1 0.227947 0.738476 0.773338
547 1 0.146079 0.578553 0.934271
548 2 0.156261 0.575404 0.917811
549 2 0.139545 0.599049 0.917113
553 1 0.171298 0.548723 0.787468
554 2 0.183262 0.54905 0.78734
555 2 0.16818 0.579527 0.787719
499 1 0.0378219 0.9156 0.887666
500 2 0.0495435 0.915009 0.88129
501 2 0.0357843 0.94518 0.898321
570 2 0.119976 0.82713 0.778411
568 1 0.124224 0.799086 0.788572
529 1 0.116999 0.949489 0.767475
530 2 0.115981 0.951281 0.799215
531 2 0.105799 0.952643 0.756701
550 1 0.0605967 0.906165 0.769709
551 2 0.0692666 0.903572 0.791544
552 2 0.062363 0.934793 0.756432
556 1 0.000554616 0.954001 0.75507
557 2 0.0104238 0.938897 0.764934
569 2 0.135964 0.803985 0.79231
588 2 0.232819 0.76192 0.790647
538 1 0.184993 0.880543 0.788584
539 2 0.175249 0.865547 0.799448
540 2 0.192898 0.878316 0.812431
945 2 0.262391 0.00810243 0.213622
714 2 0.326809 0.143374 0.186964
713 2 0.334019 0.102983 0.210318
712 1 0.324141 0.11353 0.195726
736 1 0.310005 0.239245 0.00427796
738 2 0.317866 0.232937 0.0274906
693 2 0.310922 0.0704894 0.10548
692 2 0.302197 0.0648943 0.0610517
691 1 0.300798 0.0597294 0.0923157
689 2 0.263302 0.237318 0.105893
688 1 0.254356 0.249995 0.122871
911 2 0.499924 0.0111428 0.0737912
602 2 0.482978 0.227061 0.156873
726 2 0.480703 0.135365 0.132488
725 2 0.49596 0.105525 0.131619
724 1 0.483999 0.104704 0.131688
699 2 0.499704 0.087958 0.208789
698 2 0.498351 0.0509046 0.174722
697 1 0.492229 0.0655517 0.197897
732 2 0.332622 0.395724 0.192414
731 2 0.345383 0.358461 0.192094
730 1 0.333604 0.363956 0.191013
622 1 0.282 0.343674 0.245906
717 2 0.270997 0.434416 0.233412
716 2 0.280956 0.42632 0.191272
715 1 0.27153 0.415556 0.207715
707 2 0.339365 0.462059 0.176087
646 1 0.367954 0.427748 0.180491
648 2 0.364956 0.458636 0.180491
706 1 0.330631 0.47942 0.162888
737 2 0.30857 0.270904 0.00534181
690 2 0.252423 0.27846 0.109408
679 1 0.333136 0.471582 0.0170931
680 2 0.341336 0.493848 0.0237268
681 2 0.324127 0.487718 0.00365603
601 1 0.48209 0.258635 0.160813
603 2 0.492584 0.267233 0.173504
720 2 0.389548 0.458535 0.00242843
718 1 0.391927 0.429622 0.0143387
711 2 0.424729 0.324688 0.0305333
710 2 0.438739 0.336165 0.0624555
709 1 0.4323 0.311608 0.0514942
647 2 0.379919 0.427745 0.180487
664 1 0.488984 0.487951 0.100483
665 2 0.485987 0.495176 0.130515
666 2 0.47951 0.496811 0.0831286
83 2 0.252493 0.0499779 0.474661
729 2 0.281697 0.0783446 0.286746
728 2 0.295704 0.0455516 0.278032
727 1 0.283858 0.0491184 0.275316
613 1 0.313883 0.124276 0.482926
614 2 0.325817 0.122016 0.483124
615 2 0.311714 0.155592 0.480948
655 1 0.288867 0.00232541 0.397649
657 2 0.286761 0.0336096 0.39486
682 1 0.339982 0.233546 0.307685
683 2 0.347868 0.215666 0.323688
684 2 0.335155 0.213601 0.286365
723 2 0.410295 0.173993 0.384984
722 2 0.408103 0.141937 0.346451
721 1 0.402194 0.163401 0.364029
637 1 0.376788 0.109205 0.432786
638 2 0.388536 0.10406 0.435982
639 2 0.375651 0.140952 0.433764
702 2 0.435934 0.235565 0.389462
652 1 0.445407 0.0743385 0.377809
653 2 0.457342 0.0734604 0.379898
654 2 0.442778 0.105378 0.375483
701 2 0.437602 0.248853 0.437941
700 1 0.429536 0.240175 0.416028
687 2 0.47032 0.249389 0.401716
610 1 0.257938 0.406761 0.326889
611 2 0.269722 0.405522 0.33228
612 2 0.254232 0.432438 0.343046
623 2 0.289601 0.362674 0.261597
624 2 0.271325 0.349865 0.258916
640 1 0.300713 0.311498 0.444162
641 2 0.304075 0.341897 0.440484
642 2 0.289896 0.313246 0.457686
595 1 0.405932 0.494912 0.350561
596 2 0.412249 0.467836 0.351615
597 2 0.398898 0.493673 0.376343
607 1 0.397572 0.410539 0.330593
608 2 0.405138 0.391481 0.346334
609 2 0.391863 0.391113 0.310372
631 1 0.489386 0.401003 0.484243
632 2 0.497805 0.423674 0.484241
633 2 0.495477 0.37366 0.486804
667 1 0.451058 0.362581 0.454272
668 2 0.453081 0.356078 0.423504
669 2 0.461964 0.364541 0.467251
686 2 0.489158 0.25226 0.405532
685 1 0.479075 0.266496 0.415142
739 1 0.36677 0.191241 0.680752
741 2 0.361393 0.203716 0.655123
170 2 0.254155 0.192462 0.618032
888 2 0.322112 0.211072 0.564848
887 2 0.336405 0.184906 0.585072
886 1 0.325216 0.194594 0.590886
879 2 0.332541 0.0424997 0.566294
877 1 0.330308 0.0125974 0.55689
773 2 0.298847 0.237848 0.687102
820 1 0.256195 0.0134026 0.734259
821 2 0.251918 0.0350509 0.713783
824 2 0.358499 0.193544 0.744518
740 2 0.375163 0.212589 0.688581
1095 2 0.434556 0.00164987 0.746106
766 1 0.476739 0.232741 0.572224
767 2 0.466581 0.221455 0.559702
768 2 0.48434 0.23401 0.547616
778 1 0.498177 0.0897006 0.616182
779 2 0.489083 0.0927984 0.636686
780 2 0.494994 0.0653643 0.597374
787 1 0.488974 0.147612 0.578195
788 2 0.490277 0.175175 0.593887
789 2 0.492307 0.15426 0.548281
805 1 0.402049 0.0509034 0.529078
806 2 0.41207 0.0626349 0.541974
807 2 0.393246 0.0627351 0.547163
829 1 0.473926 0.00562366 0.542245
831 2 0.477447 0.0335707 0.530046
832 1 0.413607 0.0300585 0.663051
833 2 0.411775 0.0340238 0.631771
834 2 0.40304 0.0367076 0.676456
1066 1 0.336521 0.496201 0.723884
772 1 0.289007 0.254644 0.680227
774 2 0.29129 0.283915 0.69137
855 2 0.346209 0.299416 0.712012
854 2 0.348922 0.250404 0.702421
853 1 0.341451 0.274605 0.696474
775 1 0.429935 0.404022 0.583356
776 2 0.432614 0.384135 0.607262
777 2 0.434662 0.431977 0.592166
894 2 0.497229 0.299057 0.728668
747 2 0.252424 0.249105 0.986441
876 2 0.352729 0.231075 0.873705
875 2 0.365737 0.195433 0.882243
874 1 0.353982 0.199638 0.878014
867 2 0.357507 0.0417362 0.799323
866 2 0.340661 0.059108 0.784268
865 1 0.351046 0.0478055 0.773163
843 2 0.364708 0.072722 0.995177
842 2 0.371331 0.0593161 0.949845
841 1 0.372976 0.0803682 0.973417
811 1 0.250453 0.0901452 0.817996
812 2 0.26188 0.0994218 0.816165
823 1 0.359514 0.205512 0.773971
825 2 0.367822 0.228319 0.771335
1329 2 0.497884 0.182736 0.829994
763 1 0.483601 0.133707 0.970444
764 2 0.494751 0.123118 0.975122
765 2 0.484635 0.165494 0.970303
858 2 0.449609 0.124799 0.822668
857 2 0.437717 0.107121 0.857716
856 1 0.448388 0.12112 0.854194
840 2 0.415425 0.0523243 0.902162
814 1 0.44293 0.0533267 0.97202
815 2 0.442107 0.0339338 0.946778
816 2 0.432994 0.0710601 0.97081
839 2 0.3999 0.0528181 0.931014
838 1 0.405962 0.0703042 0.909778
836 2 0.416691 0.223117 0.965992
835 1 0.409803 0.234158 0.942354
900 2 0.347179 0.471156 0.915769
899 2 0.36221 0.440532 0.91434
898 1 0.350251 0.440413 0.913354
885 2 0.313377 0.39226 0.819244
884 2 0.312792 0.343231 0.83109
883 1 0.309579 0.372053 0.841764
872 2 0.350705 0.480883 0.785959
871 1 0.341681 0.492055 0.803683
808 1 0.315167 0.26444 0.755275
809 2 0.32419 0.285369 0.756338
810 2 0.305299 0.28248 0.755585
817 1 0.297033 0.493978 0.831137
818 2 0.289884 0.468394 0.830887
819 2 0.300657 0.496456 0.861443
1064 2 0.392366 0.480085 0.849642
719 2 0.400789 0.418443 0.996048
754 1 0.481372 0.484311 0.87386
755 2 0.492841 0.477824 0.867484
897 2 0.451823 0.2531 0.879596
896 2 0.436844 0.275294 0.858184
895 1 0.440469 0.261433 0.885247
870 2 0.422264 0.353453 0.900645
869 2 0.417742 0.35184 0.851669
868 1 0.413285 0.34639 0.880773
893 2 0.488708 0.277065 0.767996
892 1 0.491 0.305608 0.755112
837 2 0.415709 0.25956 0.931183
708 2 0.327888 0.501166 0.185062
952 1 0.290932 0.749883 0.0417374
953 2 0.302003 0.74012 0.048892
975 2 0.261521 0.723101 0.192699
901 1 0.491474 0.63387 0.18629
902 2 0.486041 0.640076 0.214033
903 2 0.485202 0.609767 0.173748
916 1 0.393388 0.742509 0.134059
917 2 0.383879 0.74181 0.153414
928 1 0.484554 0.536892 0.0116469
929 2 0.496439 0.533761 0.00972107
930 2 0.482603 0.568131 0.00776493
934 1 0.494638 0.74541 0.235076
979 1 0.427236 0.66611 0.24662
964 1 0.449848 0.713569 0.180209
965 2 0.460186 0.726859 0.189233
966 2 0.443281 0.737982 0.169467
967 1 0.426452 0.65105 0.0925085
968 2 0.436005 0.656726 0.0741554
969 2 0.419449 0.676592 0.0883923
987 2 0.264117 0.842897 0.19458
986 2 0.280639 0.855621 0.173521
985 1 0.27059 0.839207 0.168
943 1 0.254274 0.985488 0.207445
944 2 0.258724 0.959147 0.220987
954 2 0.292545 0.774417 0.0217967
973 1 0.262977 0.754742 0.19404
974 2 0.252098 0.766077 0.200962
976 1 0.320767 0.933711 0.093449
977 2 0.321601 0.915736 0.0671811
978 2 0.309009 0.9378 0.0977136
909 2 0.397134 0.773123 0.232778
910 1 0.496319 0.980887 0.0705982
912 2 0.492242 0.979065 0.0406565
918 2 0.402196 0.754418 0.152073
936 2 0.491612 0.77627 0.235853
939 2 0.473283 0.908254 0.0250945
961 1 0.423742 0.937707 0.0393512
962 2 0.433513 0.955882 0.0363911
963 2 0.419524 0.944523 0.0684213
416 2 0.251356 0.740146 0.368198
990 2 0.370426 0.63185 0.46613
999 2 0.25095 0.678539 0.400896
940 1 0.351669 0.740296 0.485728
941 2 0.359294 0.715897 0.488756
998 2 0.267143 0.652451 0.399751
946 1 0.260888 0.528789 0.38631
947 2 0.272251 0.522002 0.39364
948 2 0.259663 0.55968 0.393598
955 1 0.357937 0.566969 0.309528
956 2 0.36989 0.566615 0.310941
957 2 0.355039 0.597893 0.310952
997 1 0.255274 0.648793 0.401425
922 1 0.472311 0.583537 0.363645
923 2 0.47347 0.568167 0.335855
924 2 0.483549 0.588707 0.373302
989 2 0.378635 0.625349 0.421129
988 1 0.375047 0.609425 0.44707
981 2 0.430489 0.69631 0.252163
980 2 0.435784 0.648574 0.260437
656 2 0.300795 0.999836 0.397182
995 2 0.364861 0.941419 0.400345
994 1 0.367903 0.915836 0.4176
942 2 0.357653 0.76547 0.497113
970 1 0.305364 0.945444 0.334735
971 2 0.308295 0.975797 0.328765
972 2 0.313981 0.934951 0.354226
907 1 0.396452 0.771074 0.264566
908 2 0.401948 0.797374 0.275129
996 2 0.379439 0.920413 0.424716
993 2 0.455053 0.933723 0.294869
992 2 0.47053 0.905208 0.30036
991 1 0.458646 0.903373 0.297133
949 1 0.394567 0.818481 0.494993
950 2 0.39411 0.839778 0.471266
951 2 0.397403 0.790985 0.480681
958 1 0.44833 0.815658 0.492579
959 2 0.444759 0.806975 0.463391
1003 1 0.328667 0.656056 0.742816
1005 2 0.334451 0.675528 0.722793
1009 1 0.359888 0.707027 0.721383
1011 2 0.354147 0.734861 0.724369
1015 1 0.363428 0.609644 0.667372
1016 2 0.366112 0.618913 0.637692
1017 2 0.374039 0.604548 0.681204
1039 1 0.311 0.533186 0.526597
1040 2 0.310331 0.504049 0.513717
1041 2 0.314622 0.528101 0.556579
1048 1 0.286743 0.535908 0.74173
1049 2 0.291655 0.564206 0.748487
1089 2 0.28638 0.624888 0.594222
1088 2 0.277598 0.654575 0.62764
1087 1 0.283996 0.62771 0.625361
1067 2 0.346757 0.504704 0.709718
1068 2 0.330855 0.523769 0.729336
1101 2 0.483771 0.699498 0.552596
1100 2 0.467167 0.676395 0.545361
1099 1 0.47484 0.685133 0.568231
1045 1 0.438338 0.526885 0.735206
1046 2 0.448831 0.51453 0.726126
1047 2 0.437554 0.554479 0.719324
1086 2 0.486466 0.57399 0.530453
1084 1 0.492766 0.548528 0.521097
878 2 0.339594 0.995697 0.567808
822 2 0.264426 0.99737 0.717548
1106 2 0.315815 0.785503 0.703319
1105 1 0.313165 0.765622 0.727254
1107 2 0.323796 0.756436 0.738655
1083 2 0.318217 0.991175 0.636091
1082 2 0.332917 0.959396 0.636431
1081 1 0.320955 0.960117 0.636484
960 2 0.439179 0.80787 0.511603
830 2 0.483032 0.996424 0.560784
1024 1 0.492056 0.75664 0.620515
1026 2 0.492237 0.775093 0.59449
1094 2 0.449005 0.969266 0.749734
1093 1 0.437135 0.970493 0.745933
1092 2 0.410128 0.858414 0.668971
1091 2 0.401654 0.88831 0.635175
1090 1 0.399655 0.863376 0.654357
1004 2 0.325875 0.6745 0.767764
1010 2 0.361001 0.696281 0.751279
873 2 0.345663 0.519976 0.814897
1027 1 0.253127 0.603465 0.786624
1028 2 0.263883 0.596267 0.774644
1029 2 0.252778 0.635358 0.786534
1050 2 0.278485 0.531662 0.764426
756 2 0.47777 0.502409 0.849402
1104 2 0.400904 0.652523 0.873964
1103 2 0.416978 0.625901 0.874653
1102 1 0.405115 0.622726 0.871955
1098 2 0.481623 0.595066 0.80353
1097 2 0.489829 0.567573 0.839748
1096 1 0.488758 0.597489 0.82903
1080 2 0.48683 0.688257 0.912575
1063 1 0.393646 0.503502 0.871044
1065 2 0.40376 0.518263 0.862518
1079 2 0.497422 0.666899 0.948527
1078 1 0.495788 0.694335 0.932834
1113 2 0.368183 0.916182 0.890934
1111 1 0.369983 0.88481 0.894215
1069 1 0.30355 0.973825 0.884973
1070 2 0.312611 0.992623 0.875988
1071 2 0.296313 0.993014 0.901629
938 2 0.484519 0.882639 0.993588
937 1 0.47319 0.892098 0.997581
1112 2 0.381884 0.881622 0.89509
1108 1 0.408597 0.843917 0.987608
1110 2 0.415933 0.864789 0.973478
1109 2 0.397614 0.855045 0.981564
1123 1 0.546732 0.207761 0.159028
1124 2 0.556825 0.195781 0.146778
1125 2 0.549721 0.237113 0.168669
1236 2 0.52389 0.183414 0.112652
1235 2 0.520964 0.167448 0.0654211
1234 1 0.523451 0.156979 0.0948232
1174 1 0.60724 0.129252 0.169224
1175 2 0.609226 0.159667 0.177282
1176 2 0.604763 0.114695 0.196837
1183 1 0.605087 0.13475 0.0507326
1184 2 0.616583 0.137377 0.0591774
1185 2 0.60206 0.163952 0.0407262
1726 1 0.74676 0.236533 0.214712
1126 1 0.683937 0.240556 0.122781
1128 2 0.680192 0.210348 0.125188
1171 1 0.660812 0.219441 0.00165671
1172 2 0.662744 0.226315 0.0323851
1173 2 0.649767 0.207187 0.00103042
1189 1 0.651548 0.154626 0.245763
1190 2 0.64318 0.16529 0.225606
1191 2 0.649666 0.123155 0.247331
1204 1 0.684781 0.105792 0.198804
1205 2 0.688257 0.0853313 0.221465
1206 2 0.673805 0.114858 0.207698
1227 2 0.631935 0.213504 0.183952
1225 1 0.629761 0.244359 0.189647
1239 2 0.565289 0.37097 0.0239989
1238 2 0.546661 0.36235 0.0218085
1237 1 0.556884 0.356944 0.0061371
1163 2 0.615679 0.319062 0.111309
1192 1 0.55673 0.432616 0.192778
1193 2 0.557172 0.431623 0.160909
1194 2 0.545306 0.439359 0.19945
1196 2 0.569935 0.262026 0.228605
1197 2 0.551674 0.260692 0.241782
1198 1 0.585653 0.278298 0.0477404
1199 2 0.589494 0.301063 0.0676126
1200 2 0.575246 0.268688 0.0602084
1728 2 0.744875 0.264683 0.228865
1127 2 0.675599 0.257573 0.138081
1129 1 0.637551 0.299714 0.0271754
1130 2 0.637948 0.327921 0.0420503
1138 1 0.653306 0.283875 0.212071
1139 2 0.665266 0.284395 0.21138
1140 2 0.650125 0.314616 0.213101
1156 1 0.673694 0.38235 0.179333
1157 2 0.68554 0.38572 0.176373
1158 2 0.669456 0.412185 0.17892
1162 1 0.626188 0.331653 0.102694
1164 2 0.632945 0.32979 0.12896
1169 2 0.724395 0.405218 0.233217
1177 1 0.631555 0.457639 0.0848297
1178 2 0.643403 0.455523 0.0887386
1179 2 0.629511 0.488769 0.0804456
1226 2 0.632379 0.259013 0.162178
1362 2 0.515611 0.0817213 0.492043
1242 2 0.534787 0.134627 0.332566
1241 2 0.553056 0.147279 0.328947
1240 1 0.545786 0.122093 0.331751
1233 2 0.529553 0.0273575 0.282782
1165 1 0.622997 0.154212 0.498313
1166 2 0.62448 0.133373 0.474477
1232 2 0.545254 0.0168248 0.308908
1231 1 0.534884 0.0326248 0.310856
1216 1 0.544985 0.164089 0.392074
1217 2 0.555591 0.178069 0.396848
1218 2 0.538237 0.186799 0.378717
1222 1 0.517727 0.0359751 0.419572
1223 2 0.523451 0.0208423 0.443152
1224 2 0.519428 0.0669585 0.425694
1280 2 0.694516 0.204976 0.479403
1245 2 0.74453 0.183769 0.422566
1135 1 0.691581 0.0542091 0.336428
1136 2 0.700484 0.0460363 0.316741
1137 2 0.696183 0.0774198 0.354557
1244 2 0.735456 0.182918 0.466841
1243 1 0.733588 0.181914 0.435342
1144 1 0.645167 0.222306 0.497988
1145 2 0.655034 0.238497 0.490021
1146 2 0.636177 0.242386 0.491652
1213 1 0.668331 0.0938749 0.376916
1214 2 0.665317 0.110952 0.402642
1215 2 0.660003 0.101185 0.355205
1250 2 0.560471 0.361236 0.352374
1249 1 0.558415 0.352029 0.32232
1149 2 0.618363 0.411605 0.292776
1230 2 0.581303 0.266235 0.35798
1229 2 0.580978 0.313591 0.375392
1195 1 0.562557 0.251645 0.251478
1228 1 0.581688 0.296658 0.348416
1251 2 0.553161 0.377233 0.308662
1210 1 0.527651 0.424011 0.315741
1211 2 0.538934 0.434247 0.318557
1212 2 0.521046 0.447327 0.328554
1248 2 0.679409 0.40794 0.474324
1247 2 0.691215 0.412814 0.435188
1246 1 0.687879 0.427022 0.462337
1147 1 0.625152 0.394396 0.272924
1148 2 0.635774 0.40908 0.273172
1168 1 0.722536 0.401667 0.264536
1170 2 0.710634 0.402299 0.267735
1186 1 0.707454 0.379727 0.35138
1187 2 0.718096 0.392122 0.343686
1188 2 0.700598 0.405046 0.357914
1201 1 0.663254 0.467115 0.37312
1202 2 0.656828 0.440311 0.375561
1203 2 0.660425 0.478848 0.344425
1207 1 0.733204 0.387973 0.487996
1366 1 0.537816 0.231893 0.731585
1361 2 0.531844 0.0883715 0.517111
1360 1 0.52494 0.0657926 0.5041
1318 1 0.564393 0.140166 0.665007
1319 2 0.574518 0.156227 0.659438
1320 2 0.556838 0.162108 0.676437
1333 1 0.612949 0.225507 0.748605
1334 2 0.605533 0.247173 0.736057
1167 2 0.633909 0.157496 0.51098
1279 1 0.695086 0.202044 0.511138
1281 2 0.690815 0.172827 0.517027
1384 1 0.697385 0.156735 0.744533
1306 1 0.663451 0.123845 0.554402
1307 2 0.653424 0.111647 0.566821
1308 2 0.670177 0.131242 0.579732
1385 2 0.7005 0.158538 0.713779
1386 2 0.691449 0.129136 0.746939
1571 2 0.604946 0.494878 0.734883
1570 1 0.593714 0.490169 0.744821
1383 2 0.56698 0.445814 0.70138
1382 2 0.575616 0.403148 0.715372
1381 1 0.570515 0.417422 0.690287
1368 2 0.528706 0.252228 0.727801
1312 1 0.612285 0.266224 0.592725
1313 2 0.621911 0.263957 0.611539
1314 2 0.616332 0.280123 0.566109
1359 2 0.602143 0.403336 0.537575
1358 2 0.584789 0.391385 0.553765
1357 1 0.591685 0.416299 0.546076
1350 2 0.541809 0.393689 0.65307
1349 2 0.523867 0.407523 0.644947
1348 1 0.535158 0.417324 0.641034
1561 1 0.729183 0.494564 0.628211
1264 1 0.662094 0.313152 0.564049
1265 2 0.665179 0.339907 0.579362
1266 2 0.651424 0.305394 0.576224
1560 2 0.661973 0.48219 0.658891
1209 2 0.729084 0.415415 0.500007
1208 2 0.742756 0.38103 0.505912
1377 2 0.603664 0.156181 0.781516
1376 2 0.611062 0.110212 0.788164
1375 1 0.603112 0.126262 0.770529
1296 2 0.624113 0.234714 0.841746
1367 2 0.537137 0.22286 0.762132
1327 1 0.507752 0.19146 0.8142
1328 2 0.516262 0.171794 0.824986
1335 2 0.619188 0.241622 0.770551
1341 2 0.552575 0.0883653 0.95395
1340 2 0.55219 0.0579511 0.994205
1339 1 0.545632 0.0673403 0.969223
1261 1 0.689759 0.0441516 0.981411
1262 2 0.701139 0.0493569 0.989771
1263 2 0.684676 0.0730275 0.982108
1273 1 0.65078 0.00637529 0.893271
1274 2 0.643473 0.0154518 0.916848
1371 2 0.656138 0.0912511 0.816573
1370 2 0.674345 0.101547 0.807439
1369 1 0.666915 0.0916941 0.830427
1294 1 0.635572 0.243847 0.842648
1295 2 0.64135 0.218978 0.855382
1270 1 0.532848 0.285757 0.880445
1271 2 0.54032 0.263319 0.8696
1272 2 0.53657 0.312685 0.866501
1379 2 0.621658 0.491082 0.926966
1374 2 0.592913 0.412699 0.868288
1373 2 0.5918 0.381365 0.828842
1372 1 0.590867 0.382206 0.860641
1300 1 0.549583 0.301433 0.93755
1301 2 0.542027 0.312748 0.959552
1302 2 0.5574 0.283829 0.95409
1344 2 0.528542 0.443165 0.914933
1343 2 0.532623 0.456254 0.962439
1342 1 0.534856 0.433944 0.940419
1131 2 0.641973 0.305552 0.998108
1380 2 0.632892 0.489541 0.886386
1297 1 0.673387 0.445799 0.959324
1298 2 0.677573 0.432668 0.986176
1299 2 0.661673 0.449546 0.964635
1347 2 0.670634 0.332895 0.833436
1346 2 0.661272 0.352958 0.872434
1345 1 0.660004 0.332625 0.848079
935 2 0.506477 0.745277 0.23969
1511 2 0.555399 0.526887 0.0535402
1510 1 0.547342 0.523034 0.0302668
1506 2 0.551548 0.661075 0.221382
1505 2 0.569204 0.646964 0.209953
1504 1 0.557771 0.638153 0.206645
1417 1 0.616727 0.555639 0.0950258
1418 2 0.608402 0.577622 0.101501
1419 2 0.621701 0.549093 0.123298
1500 2 0.55329 0.636808 0.0612171
1499 2 0.562979 0.61694 0.0997435
1498 1 0.554752 0.609776 0.0777127
1447 1 0.615555 0.606384 0.0299084
1449 2 0.616267 0.636227 0.0187826
1512 2 0.537741 0.539246 0.0402504
1980 2 0.74704 0.652859 0.210634
1624 1 0.698007 0.694966 0.00172317
1509 2 0.705643 0.5256 0.176654
1508 2 0.70828 0.507652 0.223291
1507 1 0.710285 0.533274 0.205044
1423 1 0.728506 0.650345 0.116521
1424 2 0.740302 0.655655 0.117066
1425 2 0.723611 0.679266 0.119874
1426 1 0.671642 0.741984 0.0863971
1428 2 0.663754 0.738105 0.0627218
1494 2 0.726515 0.655595 0.0491387
1448 2 0.626264 0.600913 0.0430477
1493 2 0.741871 0.62611 0.0496498
1492 1 0.729919 0.62501 0.0486727
1468 1 0.708602 0.632768 0.203111
1469 2 0.719658 0.641276 0.194373
1470 2 0.702039 0.659116 0.198922
1399 1 0.577143 0.843676 0.0670616
1400 2 0.578394 0.849258 0.0358244
1401 2 0.587994 0.834238 0.076635
1444 1 0.571032 0.952105 0.0220871
1445 2 0.58206 0.96104 0.0135223
1446 2 0.569933 0.962091 0.0522491
1427 2 0.671403 0.773272 0.0926175