LAMMPS (23 Jun 2022 - Update 2)
OMP_NUM_THREADS environment is not set. Defaulting to 1 thread. (../comm.cpp:98)
  using 1 OpenMP thread(s) per MPI task
Created orthogonal box = (-40 -15 -15) to (40 15 15)
  4 by 2 by 2 MPI processor grid
Read molecule template h2omol:
  1 molecules
  0 fragments
  3 atoms with max type 2
  2 bonds with max type 1
  1 angles with max type 1
  0 dihedrals with max type 0
  0 impropers with max type 0
Created 2100 atoms
  using lattice units in orthogonal box = (-40 -15 -15) to (40 15 15)
  create_atoms CPU = 0.004 seconds
2100 atoms in group H2O
System init for delete_atoms ...
PPPM initialization ...
  extracting TIP4P info from pair style
  using 12-bit tables for long-range coulomb (../kspace.cpp:342)
  G vector (1/distance) = 0.22269442
  grid = 30 15 15
  stencil order = 5
  estimated absolute RMS force accuracy = 0.020361483
  estimated relative force accuracy = 6.1318001e-05
  using single precision MKL FFT
  3d grid and FFT values/proc = 2548 512
Generated 0 of 1 mixed pair_coeff terms from geometric mixing rule
Neighbor list info ...
  update every 1 steps, delay 2 steps, check yes
  max neighbors/atom: 2000, page size: 100000
  master list distance cutoff = 14.3092
  ghost atom cutoff = 14.3092
  binsize = 7.1546, bins = 12 5 5
  2 neighbor lists, perpetual/occasional/extra = 1 1 0
  (1) command delete_atoms, occasional
      attributes: full, newton on
      pair build: full/bin
      stencil: full/bin/3d
      bin: standard
  (2) pair lj/cut/tip4p/long, perpetual
      attributes: half, newton on
      pair build: half/bin/newton
      stencil: half/bin/3d
      bin: standard
Neighbor list info ...
  update every 1 steps, delay 2 steps, check yes
  max neighbors/atom: 2000, page size: 100000
  master list distance cutoff = 14.3092
  ghost atom cutoff = 14.3092
  binsize = 7.1546, bins = 12 5 5
  0 neighbor lists, perpetual/occasional/extra = 0 0 0
WARNING: Ignoring 'compress yes' for molecular system (../delete_atoms.cpp:140)
Deleted 771 atoms, new total = 1329
Deleted 514 bonds, new total = 886
Deleted 257 angles, new total = 443
Finding SHAKE clusters ...
       0 = # of size 2 clusters
       0 = # of size 3 clusters
       0 = # of size 4 clusters
     443 = # of frozen angles
  find clusters CPU = 0.001 seconds
PPPM initialization ...
  extracting TIP4P info from pair style
  using 12-bit tables for long-range coulomb (../kspace.cpp:342)
  G vector (1/distance) = 0.21686543
  grid = 27 15 15
  stencil order = 5
  estimated absolute RMS force accuracy = 0.023426259
  estimated relative force accuracy = 7.0547482e-05
  using single precision MKL FFT
  3d grid and FFT values/proc = 2548 448
Generated 0 of 1 mixed pair_coeff terms from geometric mixing rule
Neighbor list info ...
  update every 1 steps, delay 2 steps, check yes
  max neighbors/atom: 2000, page size: 100000
  master list distance cutoff = 14.3092
  ghost atom cutoff = 14.3092
  binsize = 7.1546, bins = 12 5 5
  1 neighbor lists, perpetual/occasional/extra = 1 0 0
  (1) pair lj/cut/tip4p/long, perpetual
      attributes: half, newton on
      pair build: half/bin/newton
      stencil: half/bin/3d
      bin: standard
Setting up Verlet run ...
  Unit style    : real
  Current step  : 0
  Time step     : 2
Per MPI rank memory allocation (min/avg/max) = 9.375 | 9.391 | 9.418 Mbytes
   Step          Temp          E_pair         E_mol          TotEng         Press          Volume    
         0   0              419.38342      0              419.38342      2240.5656      72000        
      1000   284.39973     -2881.4008      0             -2131.1495     -216.94585      56515.768    
      2000   299.2242      -3447.5936      0             -2658.2351     -196.95401      44673.68     
      3000   308.5211      -3597.9799      0             -2784.0961     -346.8155       36029.749    
      4000   288.78867     -3733.523       0             -2971.6936     -143.26074      29053.743    
      5000   308.80375     -3896.7634      0             -3082.1339     -18.108599      23800.052    
      6000   298.4638      -3964.2007      0             -3176.8481     -189.05074      21668.985    
      7000   301.26042     -3965.542       0             -3170.8119     -428.14116      19155.665    
      8000   296.74043     -4068.2165      0             -3285.4102     -325.38166      16512.309    
      9000   294.36898     -4084.6861      0             -3308.1358      120.68127      14602.615    
     10000   303.95978     -4203.9101      0             -3402.0591      899.52851      13520.029    
     11000   304.87216     -4107.4722      0             -3303.2143     -494.64323      13689.392    
     12000   325.90182     -4187.1005      0             -3327.366      -655.22998      13604.99     
     13000   304.76296     -4170.4765      0             -3366.5066      1055.0253      13601.551    
     14000   307.36108     -4185.3482      0             -3374.5245      276.67686      13790.131    
     15000   296.61859     -4198.9954      0             -3416.5106      1090.4815      13657.242    
     16000   296.78287     -4172.9107      0             -3389.9924      245.85728      13842.243    
     17000   294.38331     -4131.9172      0             -3355.329      -537.04619      14155.388    
     18000   290.75616     -4174.1034      0             -3407.0837     -112.25192      14039.45     
     19000   299.55193     -4173.4939      0             -3383.2708      746.00605      13688.113    
     20000   297.0211      -4081.4655      0             -3297.9188      444.78561      13640.703    
     21000   284.41508     -4150.3526      0             -3400.0608     -132.4814       13850.071    
     22000   313.64054     -4123.4084      0             -3296.0193      92.539401      14006.668    
     23000   289.67566     -4146.7327      0             -3382.5634      470.17569      13930.34     
     24000   291.93054     -4208.3222      0             -3438.2045     -710.10805      14159.288    
     25000   299.8076      -4171.8091      0             -3380.9116     -185.73155      13966.53     
Loop time of 66.248 on 16 procs for 25000 steps with 1329 atoms

Performance: 65.210 ns/day, 0.368 hours/ns, 377.370 timesteps/s
97.7% CPU use with 16 MPI tasks x 1 OpenMP threads

MPI task timing breakdown:
Section |  min time  |  avg time  |  max time  |%varavg| %total
---------------------------------------------------------------
Pair    | 28.732     | 34.637     | 41.724     |  69.8 | 52.28
Bond    | 0.0083771  | 0.0094211  | 0.010433   |   0.7 |  0.01
Kspace  | 10.4       | 17.996     | 23.826     |  96.5 | 27.17
Neigh   | 2.7067     | 2.9516     | 3.0867     |   7.2 |  4.46
Comm    | 3.7611     | 4.678      | 6.2554     |  36.4 |  7.06
Output  | 0.012389   | 0.012957   | 0.013004   |   0.1 |  0.02
Modify  | 4.6883     | 5.2391     | 5.5073     |  11.0 |  7.91
Other   |            | 0.7238     |            |       |  1.09

Nlocal:        83.0625 ave          92 max          72 min
Histogram: 1 1 1 2 1 2 3 1 1 3
Nghost:        5242.56 ave        5287 max        5190 min
Histogram: 1 1 1 3 0 3 3 1 1 2
Neighs:        48527.1 ave       54838 max       41606 min
Histogram: 1 1 2 1 3 2 2 0 3 1

Total # of neighbors = 776433
Ave neighs/atom = 584.22348
Ave special neighs/atom = 2
Neighbor list builds = 2183
Dangerous builds = 0
System init for write_data ...
PPPM initialization ...
  extracting TIP4P info from pair style
  using 12-bit tables for long-range coulomb (../kspace.cpp:342)
  G vector (1/distance) = 0.22826411
  grid = 20 9 9
  stencil order = 5
  estimated absolute RMS force accuracy = 0.025616066
  estimated relative force accuracy = 7.7142023e-05
  using single precision MKL FFT
  3d grid and FFT values/proc = 1210 180
Generated 0 of 1 mixed pair_coeff terms from geometric mixing rule
WARNING: Not all mixed pair coeffs generated from mixing. Use write_data with 'pair ij' option to store all pair coeffs. (../write_data.cpp:309)
Total wall time: 0:01:06
